24
Lattice="0.0 22.098008075688778 22.098008075688778 22.098008075688778 0.0 22.098008075688778 22.098008075688778 22.098008075688778 0.0" Properties=species:S:1:pos:R:3:magmoms:R:1:forces:R:3 energy=-66.1299878638904 free_energy=-66.74961138181068 dipole="-6.87159352947095 -6.87159352948675 -6.871593529505232" magmom=0.0 pbc="T T T"
Ca      16.58108763      16.58108763      16.58108763       0.00000000       0.44458212       0.44458212       0.44458212
F       18.24822615      18.24822615      18.24822615       0.00000000      -0.16468743      -0.16468743      -0.16468743
F       21.58636330      21.58636330      21.58636330       0.00000000       0.07973510       0.07973510       0.07973510
Ca      20.21659463      20.21659463      17.42889723       0.00000000       0.06495525       0.06495525       1.05901046
F       21.58740104      21.58740104      18.74833671       0.00000000      -1.06902711      -1.06902711      -0.90109760
F       23.55917306      23.55917306      20.53153367       0.00000000      -0.19302694      -0.19302694       0.25866283
Ca      20.21659463      17.42889723      20.21659463       0.00000000       0.06495525       1.05901046       0.06495525
F       21.58740104      18.74833671      21.58740104       0.00000000      -1.06902711      -0.90109760      -1.06902711
F       23.55917306      20.53153367      23.55917306       0.00000000      -0.19302694       0.25866283      -0.19302694
Ca      22.81465258      20.30622557      20.30622557       0.00000000       2.83437247       1.28905774       1.28905774
F       25.11733632      20.88970846      20.88970846       0.00000000      -1.55615790      -0.40317892      -0.40317892
F       26.14286882      23.93917146      23.93917146       0.00000000       0.74521545      -1.56179252      -1.56179252
Ca      17.42889723      20.21659463      20.21659463       0.00000000       1.05901046       0.06495525       0.06495525
F       18.74833671      21.58740104      21.58740104       0.00000000      -0.90109760      -1.06902711      -1.06902711
F       20.53153367      23.55917306      23.55917306       0.00000000       0.25866283      -0.19302694      -0.19302694
Ca      20.30622557      22.81465258      20.30622557       0.00000000       1.28905774       2.83437247       1.28905774
F       20.88970846      25.11733632      20.88970846       0.00000000      -0.40317892      -1.55615790      -0.40317892
F       23.93917146      26.14286882      23.93917146       0.00000000      -1.56179252       0.74521545      -1.56179252
Ca      20.30622557      20.30622557      22.81465258       0.00000000       1.28905774       1.28905774       2.83437247
F       20.88970846      20.88970846      25.11733632       0.00000000      -0.40317892      -0.40317892      -1.55615790
F       23.93917146      23.93917146      26.14286882       0.00000000      -1.56179252      -1.56179252       0.74521545
Ca      23.77932187      23.77932187      23.77932187       0.00000000      -2.47233937      -2.47233937      -2.47233937
F       24.87567140      24.87567140      24.87567140       0.00000000       3.01077818       3.01077818       3.01077818
F       26.85366825      26.85366825      26.85366825       0.00000000      -0.13797234      -0.13797234      -0.13797234
