24
Lattice="0.0 22.098008075688778 22.098008075688778 22.098008075688778 0.0 22.098008075688778 22.098008075688778 22.098008075688778 0.0" Properties=species:S:1:pos:R:3:magmoms:R:1:forces:R:3 energy=-68.6218598459977 free_energy=-69.37133145199681 dipole="-7.323983653986506 -6.959267286847786 -6.9592672868478616" magmom=0.0 pbc="T T T"
Ca      17.84905454      17.40292778      17.40292778       0.00000000       0.23089208       0.28447278       0.28447278
F       18.90081083      18.89153322      18.89153322       0.00000000      -0.15035335      -0.08958695      -0.08958695
F       20.75646018      21.14161413      21.14161413       0.00000000      -0.09949182       0.52369221       0.52369221
Ca      20.76336768      20.06093933      17.43256652       0.00000000      -0.48474526      -0.56077757      -0.33661322
F       21.28878915      21.65338052      18.71096679       0.00000000       0.08034866       0.23341567       0.03276319
F       24.27873977      24.11563600      21.70258151       0.00000000       0.06181488      -0.05885366       0.06552485
Ca      20.76336768      17.43256652      20.06093933       0.00000000      -0.48474526      -0.33661322      -0.56077757
F       21.28878915      18.71096679      21.65338052       0.00000000       0.08034866       0.03276319       0.23341567
F       24.27873977      21.70258151      24.11563600       0.00000000       0.06181488       0.06552485      -0.05885366
Er      22.57420220      20.27780314      20.27780314       0.00000000       1.15044027       1.21944287       1.21944287
F       24.08116008      21.25329017      21.25329017       0.00000000      -0.58029815      -0.56016093      -0.56016093
F       26.36460476      23.90487398      23.90487398       0.00000000      -0.50558175       0.13334768       0.13334768
Ca      17.72817139      20.28190027      20.28190027       0.00000000       0.02149694       0.12583168       0.12583168
F       18.45539942      21.72897302      21.72897302       0.00000000      -0.32997344      -0.28492795      -0.28492795
F       21.53058753      24.41545492      24.41545492       0.00000000       0.57078577      -0.17661875      -0.17661875
Ca      20.23392252      23.30841908      20.55575841       0.00000000       0.53861692      -0.12241763       0.66335596
F       21.53428467      24.42814841      21.49096628       0.00000000      -0.62243053      -0.27247905      -0.44184688
F       24.40147307      26.49372542      23.83350769       0.00000000       0.62685894      -1.29306317       1.19965340
Ca      20.23392252      20.55575841      23.30841908       0.00000000       0.53861692       0.66335596      -0.12241763
F       21.53428467      21.49096628      24.42814841       0.00000000      -0.62243053      -0.44184688      -0.27247905
F       24.40147307      23.83350769      26.49372542       0.00000000       0.62685894       1.19965340      -1.29306317
Ca      23.97696220      23.89397053      23.89397053       0.00000000      -0.03931303       0.19842648       0.19842648
F       25.06874721      25.28024950      25.28024950       0.00000000      -0.84517123       0.13975397       0.13975397
F       26.99748137      27.19188643      27.19188643       0.00000000       0.06801293       0.02080141       0.02080141
