24
Lattice="0.0 22.098008075688778 22.098008075688778 22.098008075688778 0.0 22.098008075688778 22.098008075688778 22.098008075688778 0.0" Properties=species:S:1:pos:R:3:magmoms:R:1:forces:R:3 energy=-64.28309912546825 free_energy=-64.60236549068395 dipole="-6.840308463342994 -6.840308463326955 -6.840308463346724" magmom=0.0 pbc="T T T"
Ca      16.64329815      16.64329815      16.64329815       0.00000000       0.20944109       0.20944109       0.20944109
F       19.41470601      19.41470601      19.41470601       0.00000000      -0.03216465      -0.03216465      -0.03216465
F       21.02821801      21.02821801      21.02821801       0.00000000       1.96971347       1.96971347       1.96971347
Ca      20.30962074      20.30962074      17.33645249       0.00000000       0.38250117       0.38250117       2.08489143
F       21.42586565      21.42586565      18.80983195       0.00000000       0.12774540       0.12774540      -1.97682914
F       24.41956739      24.41956739      20.98529993       0.00000000      -1.21538222      -1.21538222       0.71868708
Ca      20.30962074      17.33645249      20.30962074       0.00000000       0.38250117       2.08489143       0.38250117
F       21.42586565      18.80983195      21.42586565       0.00000000       0.12774540      -1.97682914       0.12774540
F       24.41956739      20.98529993      24.41956739       0.00000000      -1.21538222       0.71868708      -1.21538222
Ca      23.32931981      21.05003881      21.05003881       0.00000000       2.77579272      -0.33000334      -0.33000334
F       25.28188401      21.49955535      21.49955535       0.00000000      -1.49873924      -0.54297125      -0.54297125
F       26.68814730      24.49865061      24.49865061       0.00000000      -0.56585548      -0.20523215      -0.20523215
Ca      17.33645249      20.30962074      20.30962074       0.00000000       2.08489143       0.38250117       0.38250117
F       18.80983195      21.42586565      21.42586565       0.00000000      -1.97682914       0.12774540       0.12774540
F       20.98529993      24.41956739      24.41956739       0.00000000       0.71868708      -1.21538222      -1.21538222
Ca      21.05003881      23.32931981      21.05003881       0.00000000      -0.33000334       2.77579272      -0.33000334
F       21.49955535      25.28188401      21.49955535       0.00000000      -0.54297125      -1.49873924      -0.54297125
F       24.49865061      26.68814730      24.49865061       0.00000000      -0.20523215      -0.56585548      -0.20523215
Ca      21.05003881      21.05003881      23.32931981       0.00000000      -0.33000334      -0.33000334       2.77579272
F       21.49955535      21.49955535      25.28188401       0.00000000      -0.54297125      -0.54297125      -1.49873924
F       24.49865061      24.49865061      26.68814730       0.00000000      -0.20523215      -0.20523215      -0.56585548
Ca      23.82603620      23.82603620      23.82603620       0.00000000       0.97349663       0.97349663       0.97349663
F       25.29230820      25.29230820      25.29230820       0.00000000      -1.40227741      -1.40227741      -1.40227741
F       26.42699824      26.42699824      26.42699824       0.00000000       1.60734610       1.60734610       1.60734610
